44
Properties=species:S:1:pos:R:3:forces:R:3 smiles="[H:33][c:16]1[c:14]([c:18]([c:15]([c:17]([c:19]1[S:27](=[O:2])(=[O:3])/[N:7]=[C:13]([H:30])/[N:22]([H:38])[C:25]([H:41])([H:42])[C:26]([H:43])([H:44])[S:23](=[O:1])[C:24]([H:39])([H:40])[C:12]2=[C:11]([S:8][C:9](=[N:5]2)[N:21]([H:37])[C:10](=[N:6][H:28])[N:20]([H:35])[H:36])[H:29])[H:34])[H:32])[Br:4])[H:31]" total_charge=0 energy=-132451.671142455 config_type=PubChem pbc="F F F"
O        3.43087914      -1.50277970      -3.27502678       0.88622838       0.40599569      -0.72614249
O       -2.83710120      -0.69598363       0.39242279       1.34313392       2.28635480       0.36853147
O       -3.74179409       1.37486812      -0.46935443       2.52663573       0.03651170       0.88165280
Br      -0.45931283       4.43077232       5.03991367      -0.02596345      -0.33015304      -0.66395721
N        2.52040221      -0.86756919       1.04123052      -0.39167122      -0.67730066      -0.49722574
N        3.19069435       1.77804460       4.18778874      -1.88335789       0.02728469       2.45505271
N       -1.21482311       0.70733388      -0.96178029      -1.64505801       0.45146749       2.28201536
S        0.15662285      -1.53609250       1.95741167       1.13120664       0.54708671      -0.05599553
C        1.66019525      -0.58834694       1.97838058       0.29741401       0.32037252       0.17702558
C        3.07371857       1.09870954       3.11955406       0.10546977       2.31764326       3.79412361
C        0.82106846      -2.37259147       0.60027483      -0.12179294      -0.27324001      -0.44506460
C        2.04019012      -1.91134164       0.23684677      -0.81946669      -0.32741528       0.70634600
C       -1.62592075       0.93713080      -2.14168880       3.29902986      -0.15087998      -1.94239791
C       -2.30725500       2.86077645       3.53942515      -1.22335048       0.25286752       0.80955866
C       -0.15208421       2.94473388       2.53163411      -0.05474349       0.28268076       0.89611291
C       -2.75925396       2.02450254       2.51558640       0.77158096       0.27068338       0.04033048
C       -0.56150422       2.10908117       1.48530116       0.61899791       0.48071999       0.42368907
C       -1.01312802       3.34789230       3.56321813      -0.01935361      -0.77319562      -0.79067412
C       -1.88070390       1.67265834       1.48450252      -0.30681428      -0.21284553      -0.51198762
N        4.08027627       1.17453196       2.29712321       2.00199526      -1.85261842      -4.74003922
N        1.91240062       0.40799007       2.92092826      -1.59286696      -1.18307603      -0.73747993
N       -0.63701401       0.98832103      -3.07859752      -0.49122322       0.19509663      -0.19090353
S        2.76353767      -0.95907149      -2.06569383       0.93038316      -0.52706864      -1.61684889
C        2.73905613      -2.41285179      -1.01058695      -1.36254724       0.59989693       1.80367725
C        0.78888573       0.75447034      -2.76499841      -0.38351832       0.77034849      -1.14548810
C        1.06071516      -0.71914182      -2.68393371      -0.02749483      -0.47136642       1.12999109
S       -2.52336023       0.72408636       0.08427530      -3.03806363      -2.58957440      -0.27590061
H        4.02613046       2.34043481       4.33521058      -0.29773468      -0.39903280      -0.75387084
H        0.29203346      -3.14985607       0.06054511      -0.10598638       0.23692698       0.36228413
H       -2.61732051       1.07000216      -2.48846648      -0.95008264       0.23825301      -0.07490848
H       -2.99405548       3.17444589       4.35693791       0.50847833      -0.46828011      -0.82400129
H        0.85785183       3.27092316       2.66333391       0.54368691      -0.01615331      -0.47962015
H       -3.76625106       1.65432479       2.54606750      -0.20617070      -0.03746833      -0.17588739
H        0.19396471       1.82402065       0.73312495      -0.86915424       0.12326112       0.45451715
H        4.97583820       1.00970992       2.73988035      -0.27654100       0.18667508      -0.42363367
H        3.89148118       0.62817582       1.45033534       0.91414153       0.10498868       0.24990262
H        1.21232798       0.57821625       3.63634922       0.40809618       0.00159878      -0.25125925
H       -0.92696712       1.04552694      -4.03831336       0.19139417       0.05466808      -0.02778723
H        2.18184902      -3.21198104      -1.49075100      -0.10203350       0.08629539      -0.02015954
H        3.71215679      -2.80459879      -0.73210977       0.42581499       0.58397637      -0.59857260
H        1.05299278       1.27418169      -1.85164497      -0.19153638      -0.09177036       0.17438489
H        1.41007866       1.21059945      -3.56273362      -0.54961616      -0.19864578       0.35093785
H        0.87194654      -1.24815509      -3.60782335       0.69379332      -0.02706707      -0.32603171
H        0.38435241      -1.15230725      -1.99030183      -0.66648075      -0.26285398       0.93834495
30
Properties=species:S:1:pos:R:3:forces:R:3 smiles="[H:20][c:10]1[c:11]([c:13]([c:15]([c:14]([c:12]1[H:22])[H:24])[C:8]2=[C:6]([C:5](=[O:2])[O:4][C:7]2=[C:9]([H:19])[N:16]([C:17]([H:25])([H:26])[H:27])[C:18]([H:28])([H:29])[H:30])[C:3]#[N:1])[H:23])[H:21]" total_charge=0 energy=-21799.734921125186 config_type=PubChem pbc="F F F"
N       -3.43091915      -0.80841205      -2.01427696       2.47079445      -0.18391426       1.27946059
O       -0.90050313      -3.37384269      -1.07179353       1.39276658       1.62525511       1.56205672
C       -2.41549704      -0.91074572      -1.43650911      -2.03357506       0.27590220      -0.84995487
O        0.46495798      -2.04237435       0.33684482       1.14028463      -0.25570107       0.24407981
C       -0.58326767      -2.32885788      -0.52826927      -0.22663536      -0.44417305      -0.13995215
C       -1.21842633      -1.04731569      -0.63695738      -2.47722626       2.42099967      -0.97552808
C        0.54765814      -0.64556620       0.61836595       0.78383108      -1.15504817       0.70952940
C       -0.60042069      -0.00837395       0.02353587       0.69886056      -0.86436221      -1.26691108
C        1.55076994      -0.09624551       1.36336746       1.75572377      -1.96794058      -0.35815440
C       -1.06097946       4.26706769       0.20023056       2.16732363       3.41332864      -1.27655609
C        0.16472765       3.76057674      -0.15236078       1.37712419      -1.26003273      -1.26530946
C       -2.07845447       3.42270615       0.26433071      -4.27614802       0.33357727      -0.03592689
C        0.30831308       2.34862151      -0.29507694       0.90830755      -0.18241259       0.19290155
C       -2.02834747       2.06754972       0.14273660       0.46903062      -1.31236207       0.95664865
C       -0.77998588       1.46036454      -0.03131381       0.09068203       0.74471428      -0.12328086
N        2.75389101      -0.78515587       1.84406032      -3.11750594       1.43943417      -0.49082927
C        3.32282760      -0.28974060       3.11072852      -1.64159349      -0.83990536      -0.45384603
C        3.55363991      -1.49632857       0.88016885       1.48044750      -0.12029161       1.34063815
H        1.52341016       0.97805598       1.45128979      -0.20378154       0.08900476       0.59330879
H       -1.16772292       5.40212872       0.11475550      -0.18469356      -1.84058475       0.57663691
H        0.91656493       4.48419430      -0.54853055      -0.29434715      -1.04144018       0.78047866
H       -3.07872746       3.86809685       0.25382330       0.23021447      -0.22346742       0.52718050
H        1.29394653       1.88637187      -0.60856090      -1.35365367       0.82716047       0.39050269
H       -2.94421885       1.52617910       0.37919041       0.40518128      -0.19239393      -0.50910222
H        3.99262907      -1.03201173       3.50962498       0.03519088      -0.41969578       0.20910877
H        3.89017727       0.57498948       2.95266869       0.88019150       1.59124139      -0.11574856
H        2.49955346      -0.07787082       3.84061839       0.81452623      -0.29631866      -0.69212955
H        4.13134339      -2.24534223       1.42619499       0.20943108       0.14797849       0.00596466
H        2.99659874      -2.06804321       0.21601384      -1.47023560      -0.75982637      -1.07322644
H        4.25177791      -0.91535923       0.27041616      -0.02492934       0.44937521       0.26032672
43
Properties=species:S:1:pos:R:3:forces:R:3 smiles="[H:30][c:14]1[c:15]([c:18]([c:17]([c:19]([c:16]1[H:32])[C@:26]23[C:13](=[C:10]([C:8](=[O:3])[C@@:24]([C@@:25]2([C:23]([C:21]([C:12]4=[C:11]([N:20]([N:5]=[C:9]34)[H:34])[H:28])([H:35])[H:36])([H:40])[H:41])[H:43])([H:42])[C:22]([H:37])([H:38])[H:39])[C:4]#[N:1])[H:29])[H:33])[C:7](=[O:2])[O:6][H:27])[H:31]" total_charge=0 energy=-31646.914314869242 config_type=PubChem pbc="F F F"
N        2.75994923       4.12672784      -2.27999208      -0.45058305       0.00817482       0.78173634
O        3.24657156       3.66732623       3.38636830      -1.20892765      -1.40075386       0.64144701
O       -0.71853135       3.97528436      -0.86812804       1.20042892      -3.31515857       0.02644903
C        2.01563897       3.52643778      -1.63208983       0.68170844       0.35572213      -1.55966258
N        2.85216167      -1.17651079       0.11264648       1.10502815       0.05540077       1.50496318
O        2.53122284       2.90211870       5.38604452       0.11851543       0.52546547      -0.93281304
C        2.56868555       2.84477641       3.99314525       1.94911492       1.87327164       0.22856904
C       -0.28583888       2.80294659      -0.88003705      -2.37238949       2.17322292       0.09822980
C        1.57501628      -0.97717402      -0.06964467      -0.91888500      -3.52384327      -1.60214790
C        1.17517622       2.50806334      -1.10580060      -1.55663604       0.63639319       0.35123429
C        1.80580571      -3.22486017       0.17582383       1.44578538       0.77346025       0.11527360
C        0.91761547      -2.26511738      -0.19574783      -0.90022705       0.38262765       1.44683774
C        1.68090608       1.30952277      -0.86936102       1.25100262       0.66221096      -0.20785741
C       -0.14787946       0.36391304       3.57051518      -1.00374567      -0.75979315       0.01094396
C        0.87812500       1.05156358       4.19813111      -0.55483619       0.03894769       0.50477520
C       -0.20058820       0.26147457       2.19277086      -0.57693559      -1.56007900      -0.89695254
C        1.71176865       1.61573901       1.93823804      -0.76990543      -0.86262508       0.65826529
C        1.74215784       1.78395047       3.36975243      -0.42150904      -0.41264395      -0.96171547
C        0.76299827       0.72355541       1.32070132       0.59329116       2.11889807       1.67654074
N        3.02158691      -2.50467012       0.32234091      -2.78759470      -1.26808338      -0.66152521
C       -0.49256942      -2.39389417      -0.64520166       1.15262653       0.68211501      -3.60203946
C       -2.30239484       1.59334483      -1.97893284       1.92135305       2.11410286      -0.70376013
C       -1.14954446      -1.01192818      -0.71784255      -1.72434238      -0.49171528      -0.33895184
C       -1.30011961       1.53420975      -0.83052728       1.02903368      -0.15170094      -0.54466112
C       -0.41315708       0.27804323      -1.00683186      -0.74433907      -1.56982256       0.36543861
C        0.82303124       0.30475259      -0.15460358       3.15053683       1.39189150       0.00449404
H        3.00962379       3.72936132       5.65990784      -0.53800910      -1.20372515      -0.69307714
H        1.66309561      -4.31984947       0.37947272       0.52122948       1.48339637      -0.42514021
H        2.72330716       1.20498373      -1.21172414      -0.55002085      -0.67034204       0.70438424
H       -1.00751410      -0.18482969       4.02332761       1.21144955       0.72531811       0.41284531
H        0.95109319       1.06345703       5.31016924      -0.00149030       0.26366039      -1.22834475
H       -0.97709785      -0.39680300       1.77626827       0.35023845       0.58783477       0.41155957
H        2.41094818       2.14191248       1.30504140       0.08830702       0.13013889       0.39256768
H        3.78445914      -2.94537208       0.77553023       1.04051022       0.59112572       0.06187704
H       -0.36822925      -2.77929018      -1.71261857      -0.43150736       0.29634829       1.11078376
H       -1.17917356      -3.06842134      -0.18717454      -0.02024418      -0.53332196       0.76298853
H       -2.75231931       2.56812146      -1.89297197      -0.33858574       0.38174243      -0.34221282
H       -1.75411151       1.53959682      -2.92501233      -0.30885848       0.05549544      -0.03564599
H       -3.06881950       0.89045324      -1.98087547      -1.05249035      -1.43341621       0.35100295
H       -1.65988967      -1.02303848       0.21116027      -0.58133435       0.95409328       0.93630259
H       -1.95265482      -0.98400245      -1.43884049      -0.35702065      -0.64542760      -0.27398224
H       -2.00194118       1.50447752       0.02256348       1.31033744       0.18242225       0.38546869
H       -0.12395111       0.19426673      -2.09134100       0.04679956       0.35138607       1.06418350
44
Properties=species:S:1:pos:R:3:forces:R:3 smiles="[H:25][c:6]1[c:7]([c:12]([c:17]2[c:16]([c:11]1[H:30])[C:22]([C:21]([O:4][C:23]2([H:44])[C:20]([H:38])([H:39])/[N:1]=[C:5]([H:24])/[c:15]3[c:9]([c:13]([c:8]([c:14]([c:10]3[H:29])[O:3][C:19]([H:35])([H:36])[H:37])[H:27])[O:2][C:18]([H:32])([H:33])[H:34])[H:28])([H:40])[H:41])([H:42])[H:43])[H:31])[H:26]" total_charge=0 energy=-27690.64171175159 config_type=PubChem pbc="F F F"
N        1.00973355       0.57522225       0.83181705      -1.28701335      -0.76577966      -3.52168904
O        0.35069773      -3.47019789      -3.87362287       0.58302942       0.82354829      -1.10933645
O        1.62628069      -4.38777301       0.52863273      -0.73142444      -2.47195119       0.09380862
O       -1.46614883       1.89951124       1.81434610      -1.31565912       1.74240658       0.46419602
C        0.68043009       0.28186480      -0.43701301       1.55363846       0.42528175       3.72901664
C        0.15508967       6.63343241       2.53186681       1.99264156      -0.87669932      -0.58255274
C        0.74838927       6.27104761       1.30662092      -2.03756032      -2.30840389      -0.88288104
C        0.91078459      -3.89856145      -1.63443992      -0.23287726      -0.44786111      -1.46680308
C        0.40972487      -1.62351010      -2.22493384       0.86892603       0.65278398      -0.73577889
C        1.19999530      -2.18506119      -0.04700545       0.21746104       4.06628676       0.82376685
C       -0.38250671       5.69904186       3.37967207      -1.03402817      -1.14615699      -0.62392942
C        0.38142066       4.97673084       0.81056561       0.09754688       2.20325864      -0.77449731
C        0.49899771      -2.96088669      -2.59303448       1.53505068      -2.12071428       0.77047514
C        1.26769914      -3.48844383      -0.40552131       0.66369274       0.79267279       1.99816150
C        0.85028352      -1.14694784      -0.97183810      -1.18804007      -1.41676025       1.33871071
C       -0.55671785       4.37098362       2.91328265       0.08657647       2.67109663       0.20646149
C       -0.30592940       4.07089378       1.60399582       0.90417513       0.44096078       0.69901305
C        1.41394826      -4.32052181      -4.47753618       0.08158581       0.71295548      -0.60533808
C        2.67329981      -4.25328062       1.45522650      -0.99417615       0.68053554      -1.52369060
C        0.87760403       1.99063399       1.31670298      -0.61868807      -2.47040342       1.80854570
C       -1.60952637       2.12704589       3.24218609       4.13908103      -1.27139232       0.64705982
C       -1.16132877       3.47438361       3.89315321      -1.85903401      -1.13973592      -2.90337345
C       -0.47413287       2.69411661       1.15627363      -0.00606407      -1.97839174       0.75263330
H        0.34162432       1.11985006      -1.04727695      -0.16153714      -0.50077063      -0.51551131
H        0.40004388       7.58432867       2.85103299      -0.08231622       1.98269353       0.84882805
H        1.25014820       6.93338205       0.60211878      -0.16844352       0.11544274       0.60717013
H        1.06263944      -4.94938419      -1.81372426      -0.24480945      -0.09831073      -0.48909507
H        0.24906056      -0.96777210      -3.04464958      -0.48260965       0.76875131      -0.39197823
H        1.43303367      -1.83773015       0.98850786      -0.17485014      -0.53416747      -1.06736486
H       -0.87441395       5.88810875       4.34712030       0.75142530       0.45232310      -0.47832733
H        0.45101287       4.80529453      -0.28512070       0.48065621      -0.21255436       0.94408497
H        1.19877585      -5.32233045      -4.15412996       0.25443351      -0.49534802       0.29095016
H        1.25302388      -4.36218688      -5.63264367       0.25344501       0.67269248       2.20472298
H        2.51849761      -4.05001256      -4.21226689      -2.23913144      -0.09358121      -0.36193066
H        3.56965210      -4.15951393       0.93360847       1.73014525       0.47150781      -0.67790568
H        2.73024656      -5.07602022       2.07318856      -0.21360866      -2.28343217       0.79975780
H        2.49224129      -3.48776052       2.12211432      -0.13324242       2.18469449       1.16175650
H        1.15167072       1.94046392       2.44990756      -0.46979469       0.33743652      -2.06385483
H        1.58508648       2.54137923       0.80504244       1.69036881       1.30476156      -0.77522581
H       -0.80834410       1.43330212       3.60250690      -1.01432694       0.01050920       0.39175749
H       -2.54195950       1.80480721       3.64095356      -0.81863883      -0.23559790      -0.43550409
H       -2.06290767       3.97465040       4.15034296      -0.55667349       0.41516038       1.13161618
H       -0.43408058       3.40349318       4.64003517       0.44753016      -0.72426181       1.61180021
H       -0.77934287       2.73772456       0.14773237      -0.26658110      -0.33562192      -1.33475025
25
Properties=species:S:1:pos:R:3:forces:R:3 smiles="[H:18][c:7]1[c:6]([c:9]2[c:8]([c:11]3[c:10]1[C:4](=[C:5]([C:13]([C:14]3([H:24])[H:25])([H:22])[H:23])[H:16])[H:15])[N:1]=[C:3]([S:2]2)[C:12]([H:19])([H:20])[H:21])[H:17]" total_charge=0 energy=-24959.22686097695 config_type=PubChem pbc="F F F"
N        1.76252272       0.11788176       1.99760737       0.26130973       0.46520168      -1.59473905
S        0.21090754      -1.39797780       3.43454387      -0.00055157       0.92567396      -1.42991404
C        1.73742750      -0.63026557       3.01640370       1.85660395      -0.76715628       0.44406742
C       -1.25082264       1.81296231      -1.44483862       1.10952931       1.29264961      -2.20236371
C       -0.26174120       2.23188092      -2.27205322      -0.41951163      -0.95673483       0.51783361
C       -1.70039318      -0.73032842       1.39874246       1.16984523       2.17547040      -1.43151132
C       -1.95189498       0.10832446       0.24377473       0.18337936      -2.31287967       1.43479058
C        0.57101302       0.11537787       1.29578003      -0.19042898       0.71897061       0.41160256
C       -0.43514637      -0.58269546       1.94622149      -0.42358005      -1.32598717       0.70846075
C       -0.96867369       0.89534160      -0.39270047      -0.02057072      -1.30728610       2.25547331
C        0.33089994       0.82460021       0.11468082       0.45681485       0.05144711       0.12823983
C        3.09352162      -0.87998126       3.65614989      -0.21419796      -0.63885334       2.28061914
C        1.15087207       1.74716880      -2.12149499      -0.03008876       4.30014673       3.60266023
C        1.41749778       1.59807255      -0.57474158       1.14376363       0.42308695      -0.23608784
H       -2.23131392       2.22670033      -1.57377503      -0.43592866      -0.19913091      -0.02757983
H       -0.41058538       2.82896330      -3.14180872      -0.64460139       0.58604424      -0.24002155
H       -2.32940886      -1.43181679       1.89871433      -0.97968795      -0.02756010      -0.35838327
H       -2.86610577      -0.13590519      -0.24951337      -0.69442998       0.60826155      -0.30086488
H        3.66694810      -1.78910444       3.34064438      -0.82081661       0.86061498      -0.39718292
H        2.94061377      -1.08769057       4.74969151       0.22134148       0.38424172      -0.75756920
H        3.72141125       0.02383556       3.56479122      -0.41060418      -0.59237553      -0.12690338
H        1.33982434       0.97448720      -2.73730728       0.80123493      -3.02183276      -1.70144038
H        1.85032000       2.58416154      -2.38113830      -0.62827680      -0.75514304      -0.29410576
H        1.38892301       2.66998007      -0.12957660       0.31384968      -1.67660538      -0.74615962
H        2.45281317       1.13545712      -0.40936730      -1.60339181       0.79106729       0.05920607
45
Properties=species:S:1:pos:R:3:forces:R:3 smiles="[H:31][c:13]1[c:14]([c:16]([c:18]2[c:17]([c:15]1[H:33])[C:5](=[O:1])[N:20]([N:21]([S:26]2(=[O:3])=[O:4])[H:35])[C:25]([H:44])([H:45])[C:6](=[O:2])[C:9]3=[C:11]([N:19]([C:10](=[C:8]3[H:29])[C:22]([H:36])([H:37])[H:38])[C:24]([H:42])([H:43])[C:12](=[C:7]([H:27])[H:28])[H:30])[C:23]([H:39])([H:40])[H:41])[H:34])[H:32]" total_charge=0 energy=-42487.30168776342 config_type=PubChem pbc="F F F"
O       -1.86424372       1.15337797      -0.32451097       1.37267703       0.61750588       1.33318301
O        1.32773258       1.57554414       3.65999915      -1.04742457      -0.27140803      -2.02740588
O       -3.72970150      -1.56818364       4.04695727       0.67686600       0.40099933      -2.29266304
O       -4.50518558       0.60234495       3.32610824       0.83787015      -1.38982493      -2.10809324
C       -2.01290081       0.42921239       0.64869343      -0.46174319       0.43208778      -1.09262945
C        0.92341079       1.63064911       2.48219790       2.84849988       0.01303894       2.05293833
C        5.10999252      -0.64266513      -1.37653801       1.16246265       1.47874858       0.61353611
C        1.56595208       2.32493689       0.18678637      -0.36890892       2.00736886      -2.12866903
C        1.99380901       1.80827429       1.37821349      -1.76061261      -1.67153579       1.44197110
C        2.66372158       2.55518295      -0.62396619      -2.44559802      -1.07621487      -0.07785574
C        3.35035517       1.50407227       1.23802157      -0.35998993      -0.61272444       1.39249272
C        5.51654531       0.64496215      -1.44240759      -1.09321243      -0.34485428       0.48699137
C       -3.90505693      -2.28164528      -1.34533093       0.31841988       1.02908596       1.66353076
C       -4.75889680      -2.72255561      -0.39777944      -1.53075128      -0.77923327       3.24256344
C       -2.99707839      -1.30434654      -1.02084253      -0.02920139       1.32664203       2.63771822
C       -4.69072578      -2.30966923       0.96837228       0.60806830       1.02582139      -1.76648616
C       -2.95379422      -0.68928335       0.31372958      -1.36766328      -2.51667226       0.19166198
C       -3.85234782      -1.21837923       1.29201003       0.99222997      -0.44046543      -0.43984730
N        3.72840216       1.93839385      -0.03378460       1.33872630       0.03971275       0.50344727
N       -1.44138358       0.59940110       1.93468859      -0.13014672       1.04799931      -0.94697945
N       -2.06814787       0.04875847       3.08909633      -0.10792236      -1.87081799      -0.72514451
C        2.50682690       3.19424107      -1.95518849       2.20543920      -0.77948305      -1.00400164
C        4.26035311       0.93946641       2.32245066       1.74696645       0.10255036      -0.03820207
C        5.08545544       1.92551925      -0.65545306       0.17437838      -1.11998926       1.34699804
C       -0.62657163       1.80640199       2.30322244       0.07302310       1.53192586       1.35723901
S       -3.66267440      -0.54953811       2.99208381      -1.82254530       1.30543604       3.30806459
H        4.54359009      -1.02674649      -0.55653498      -0.93005885       0.11444992       0.13105153
H        5.58016970      -1.41462753      -1.97518823       0.01610591       0.32267292      -0.16609671
H        0.54629982       2.62224748      -0.06975434       0.54709720      -0.11146733       0.09187818
H        6.30672743       0.86691537      -2.12563393       0.27318547       0.21686972      -0.58948800
H       -4.00581500      -2.82124302      -2.21402071       0.46086875      -0.35059023      -2.40943995
H       -5.50984857      -3.47990272      -0.65796731       0.48530837       0.24123134       0.25027982
H       -2.33562348      -0.97379134      -1.75517342       1.10677150       0.68444255      -0.79973124
H       -5.26033208      -2.85583446       1.67366543      -0.51430068       0.03046691       0.75204126
H       -1.57432053      -0.77986023       3.44287183       0.32021142       0.49040991      -0.30740098
H        1.48541083       3.59273340      -1.98632047       0.56040626      -0.18467174      -0.47971989
H        3.27421000       3.98589756      -2.02933977      -0.65817263       0.14578323      -0.19779556
H        2.80821564       2.47612407      -2.81040618      -1.01231307       1.05024856       1.15856492
H        5.05988075       1.74460640       2.45443179      -0.52475924      -1.36669147      -0.06765625
H        3.83427884       0.82418292       3.35012319      -0.34951503       0.34298655      -1.31592648
H        4.74988987      -0.08517377       2.10655262      -0.64761250       1.78097765      -0.05819501
H        5.84611847       2.08289328       0.15546140      -0.71816181      -0.19845240      -0.58957058
H        5.15774442       2.82166912      -1.26667199      -0.08514151      -0.26660420      -0.27090464
H       -0.73915134       2.74018624       1.65168872      -0.49155383      -1.70102078       0.57939898
H       -0.91831694       2.09822538       3.41836192       0.32543560      -0.72165368      -2.64397942
22
Properties=species:S:1:pos:R:3:forces:R:3 smiles="[H:20][c:15]1[c:14]([n:6][c:12]([n:5][c:13]1[Cl:4])[Cl:3])[N:17]([H:22])[C:11]2=[C:9]([C:8](=[C:10]([N:16]([C:7]2=[S:1])[H:21])[Cl:2])[H:18])[H:19]" total_charge=0 energy=-63794.60481133227 config_type=PubChem pbc="F F F"
S       -2.13916061       2.01205256       2.08005681       0.03027630      -0.06265320       0.28881274
Cl       0.92727678      -0.37875852       5.82697870      -0.65649735       0.46302892      -1.25055162
Cl       0.86428120       2.90314748      -4.37337110       0.18135032      -0.18092343       0.14325757
Cl       1.48222335      -2.30237243      -3.15310976      -0.10634481       1.58789721      -0.02411760
N        1.19361635       0.41991825      -3.56384322       0.68063438      -1.04513505      -0.89539858
N        0.47637648       1.96370818      -1.96705720       0.19448792       1.46267826      -1.42042472
C       -0.77040897       1.14403733       2.46900108      -0.85752183       0.42887681      -0.11040320
C        1.52460100      -0.24854121       3.14043857      -1.64650426       0.96414037       0.25592791
C        1.33685424       0.15859278       1.74880626      -0.17869114      -0.38205354       1.98014014
C        0.59489855       0.04830225       4.14528396       0.95330122      -0.08085457      -1.71789919
C        0.21505057       0.83110391       1.42073103      -0.33476575       0.37039853      -0.58426072
C        0.88245481       1.66132369      -3.17732046      -0.40889003      -2.03467270       0.23889797
C        1.16112222      -0.60797475      -2.70068214      -0.78527877       1.85915359       0.84444204
C        0.44151535       0.97610070      -1.11855028      -0.33876525      -0.21986880       2.41307205
C        0.76547021      -0.33232675      -1.38088808       0.94145169      -1.12661633      -1.77234499
N       -0.57127283       0.74064360       3.78716328       1.63899868      -0.77062148      -0.63370885
N       -0.02094660       1.35530510       0.12412056      -0.74895789       0.33244752       1.64571090
H        2.44074609      -0.70962987       3.39666488       0.54703441      -0.44080274       0.37729537
H        2.09713330      -0.01982734       1.00863203       0.17952062      -0.16227323       0.09868874
H        0.70609244      -1.09298298      -0.64725218      -0.14989198      -0.45706480       0.48425765
H       -1.30899356       0.96147238       4.45863583       0.46963815      -0.07856690      -0.41361153
H       -0.65703175       2.15860441       0.11745986       0.39582920      -0.42694227       0.05528711
28
Properties=species:S:1:pos:R:3:forces:R:3 smiles="[H:20][c:8]1[c:10]([c:13]([c:11]([c:9]([c:12]1[N:16]([H:25])[N:15]2[C:7](=[N:4][N:14]([C:6]2=[S:3])[H:24])[C:17]([H:26])([H:27])[H:28])[H:21])[H:23])[S:18](=[O:1])(=[O:2])[O:5][H:19])[H:22]" total_charge=0 energy=-43282.16912397217 config_type=PubChem pbc="F F F"
O       -2.51554272      -1.63188407       4.09573223       0.60542822       3.70182140      -1.91817811
O       -3.66437576       0.32513448       2.82665159       3.26088915      -1.30014685       2.11008850
S        3.80674889       3.38385346      -0.92799960       0.56869091       0.55381453       0.05810138
N        2.24665465       0.91491498      -3.35858057      -0.99934633      -2.40684212      -1.50140337